 Gaussian 09, Revision C.01,
 Gaussian 09:  EM64L-G09RevC.01 23-Sep-2011

 -------------------------------------------
 # b3lyp/3-21g geom=connectivity pop=regular
 -------------------------------------------

 99/5=1,9=1/99;
 --------------------------
 4a_TON_3J_4a_3_21G_pop_DFT
 --------------------------
 Charge =  0 Multiplicity = 1

                         Standard orientation:
 ---------------------------------------------------------------------
 Center     Atomic      Atomic             Coordinates (Angstroms)
 Number     Number       Type             X           Y           Z
 ---------------------------------------------------------------------
      1          6           0        0.846900    1.041140   -0.000054
      2          6           0       -0.542235    1.274194   -0.000057
      3          6           0        1.477653   -0.209540   -0.000048
      4          6           0       -1.477643    0.209551   -0.000058
      5          6           0        0.542244   -1.274185   -0.000050
      6          6           0       -0.846891   -1.041130   -0.000054
      7          8           0        1.460605    2.264131   -0.000057
      8          7           0       -0.764450    2.640199   -0.000051
      9          6           0        0.423445    3.172950   -0.000083
     10          8           0       -1.460596   -2.264122   -0.000052
     11          7           0        0.764459   -2.640190   -0.000059
     12          6           0       -0.423435   -3.172941   -0.000028
     13          6           0        2.877703   -0.388808   -0.000050
     14          6           0        4.084976   -0.539506   -0.000089
     15          6           0       -2.877694    0.388820   -0.000060
     16          6           0       -4.084992    0.539476   -0.000031
     17          6           0        0.768168    4.588939   -0.000073
     18          6           0        2.107567    5.010422   -0.000121
     19          6           0       -0.262329    5.544425   -0.000007
     20          6           0        2.408041    6.370582   -0.000109
     21          1           0        2.902076    4.271839   -0.000169
     22          6           0        0.047394    6.900551    0.000005
     23          1           0       -1.292566    5.204265    0.000032
     24          6           0        1.381864    7.317922   -0.000046
     25          1           0        3.445973    6.691589   -0.000148
     26          1           0       -0.752950    7.635272    0.000053
     27          1           0        1.620332    8.378032   -0.000037
     28          6           0       -0.768159   -4.588930   -0.000040
     29          6           0        0.262338   -5.544417   -0.000109
     30          6           0       -2.107558   -5.010413    0.000009
     31          6           0       -0.047385   -6.900543   -0.000123
     32          1           0        1.292575   -5.204257   -0.000148
     33          6           0       -2.408032   -6.370573   -0.000006
     34          1           0       -2.902068   -4.271830    0.000060
     35          6           0       -1.381856   -7.317913   -0.000071
     36          1           0        0.752958   -7.635264   -0.000174
     37          1           0       -3.445965   -6.691579    0.000034
     38          1           0       -1.620324   -8.378024   -0.000082
     39          6           0        5.494290   -0.733984    0.000023
     40          6           0        6.033633   -2.036857    0.000078
     41          6           0        6.372817    0.368584    0.000077
     42          6           0        7.412447   -2.225647    0.000184
     43          1           0        5.358080   -2.886534    0.000035
     44          6           0        7.750210    0.168894    0.000183
     45          1           0        5.960452    1.372824    0.000035
     46          6           0        8.275053   -1.126170    0.000237
     47          1           0        7.816405   -3.234419    0.000225
     48          1           0        8.417534    1.026543    0.000224
     49          1           0        9.350984   -1.277725    0.000320
     50          6           0       -5.494306    0.733960    0.000043
     51          6           0       -6.372841   -0.368604    0.000082
     52          6           0       -6.033642    2.036834    0.000077
     53          6           0       -7.750234   -0.168902    0.000152
     54          1           0       -5.960483   -1.372846    0.000056
     55          6           0       -7.412455    2.225634    0.000147
     56          1           0       -5.358085    2.886507    0.000046
     57          6           0       -8.275069    1.126165    0.000185
     58          1           0       -8.417566   -1.026545    0.000182
     59          1           0       -7.816405    3.234409    0.000172
     60          1           0       -9.350998    1.277730    0.000240
 ---------------------------------------------------------------------

 SCF Done:  E(RB3LYP) =  -1634.68447004     A.U. after   16 cycles

 The electronic state is 1-A.
 Alpha  occ. eigenvalues --  -19.13592 -19.13576 -14.26613 -14.26599 -10.23980
 Alpha  occ. eigenvalues --  -10.23976 -10.21238 -10.21219 -10.18525 -10.18510
 Alpha  occ. eigenvalues --  -10.18187 -10.18187 -10.16178 -10.16178 -10.15894
 Alpha  occ. eigenvalues --  -10.15894 -10.14313 -10.14313 -10.14229 -10.14229
 Alpha  occ. eigenvalues --  -10.14129 -10.14129 -10.14009 -10.14008 -10.14002
 Alpha  occ. eigenvalues --  -10.13992 -10.13989 -10.13989 -10.13968 -10.13967
 Alpha  occ. eigenvalues --  -10.13933 -10.13933 -10.13906 -10.13906 -10.13846
 Alpha  occ. eigenvalues --  -10.13846 -10.13691 -10.13691 -10.13621 -10.13621
 Alpha  occ. eigenvalues --   -1.16369  -1.16319  -0.96177  -0.96156  -0.89362
 Alpha  occ. eigenvalues --   -0.87744  -0.87276  -0.87263  -0.87069  -0.82037
 Alpha  occ. eigenvalues --   -0.80504  -0.79447  -0.78437  -0.78365  -0.76155
 Alpha  occ. eigenvalues --   -0.76117  -0.75802  -0.75802  -0.74810  -0.74305
 Alpha  occ. eigenvalues --   -0.72710  -0.69244  -0.66779  -0.65556  -0.64245
 Alpha  occ. eigenvalues --   -0.63617  -0.62760  -0.62385  -0.61808  -0.61808
 Alpha  occ. eigenvalues --   -0.61354  -0.60095  -0.59470  -0.57250  -0.56382
 Alpha  occ. eigenvalues --   -0.55433  -0.55212  -0.54057  -0.53143  -0.51954
 Alpha  occ. eigenvalues --   -0.51145  -0.50246  -0.48786  -0.48710  -0.48659
 Alpha  occ. eigenvalues --   -0.48632  -0.47947  -0.47241  -0.47213  -0.46882
 Alpha  occ. eigenvalues --   -0.46456  -0.45263  -0.44662  -0.44587  -0.44448
 Alpha  occ. eigenvalues --   -0.44024  -0.43771  -0.43760  -0.43561  -0.43561
 Alpha  occ. eigenvalues --   -0.40586  -0.39940  -0.39270  -0.39065  -0.38756
 Alpha  occ. eigenvalues --   -0.38567  -0.37025  -0.36960  -0.36925  -0.36900
 Alpha  occ. eigenvalues --   -0.36894  -0.36878  -0.35888  -0.35887  -0.35810
 Alpha  occ. eigenvalues --   -0.35756  -0.33422  -0.32279  -0.31394  -0.29291
 Alpha  occ. eigenvalues --   -0.29279  -0.29244  -0.27886  -0.27767  -0.27430
 Alpha  occ. eigenvalues --   -0.26523  -0.26458  -0.26366  -0.26193  -0.26193
 Alpha  occ. eigenvalues --   -0.23833  -0.22681  -0.20167
 Alpha virt. eigenvalues --   -0.08607  -0.04424  -0.04114  -0.02367  -0.00643
 Alpha virt. eigenvalues --   -0.00601  -0.00303  -0.00303   0.01224   0.02040
 Alpha virt. eigenvalues --    0.04313   0.04545   0.05689   0.06831   0.08895

 Mulliken atomic charges:
              1
     1  C    0.333455
     2  C    0.240009
     3  C   -0.124421
     4  C   -0.124430
     5  C    0.240009
     6  C    0.333454
     7  O   -0.575699
     8  N   -0.618529
     9  C    0.616830
    10  O   -0.575699
    11  N   -0.618530
    12  C    0.616830
    13  C    0.021600
    14  C    0.026509
    15  C    0.021607
    16  C    0.026513
    17  C   -0.092474
    18  C   -0.181802
    19  C   -0.170048
    20  C   -0.179027
    21  H    0.209483
    22  C   -0.180520
    23  H    0.218826
    24  C   -0.178744
    25  H    0.194023
    26  H    0.194891
    27  H    0.194319
    28  C   -0.092475
    29  C   -0.170048
    30  C   -0.181802
    31  C   -0.180521
    32  H    0.218826
    33  C   -0.179027
    34  H    0.209483
    35  C   -0.178743
    36  H    0.194891
    37  H    0.194023
    38  H    0.194319
    39  C   -0.056685
    40  C   -0.159964
    41  C   -0.161220
    42  C   -0.179180
    43  H    0.199844
    44  C   -0.178692
    45  H    0.192690
    46  C   -0.182013
    47  H    0.192821
    48  H    0.191911
    49  H    0.191812
    50  C   -0.056693
    51  C   -0.161221
    52  C   -0.159963
    53  C   -0.178691
    54  H    0.192690
    55  C   -0.179180
    56  H    0.199845
    57  C   -0.182014
    58  H    0.191911
    59  H    0.192821
    60  H    0.191813
 Sum of Mulliken atomic charges =   0.00000

 Dipole moment (field-independent basis, Debye):
    X=              0.0000    Y=              0.0000    Z=              0.0002  Tot=              0.0002
 Quadrupole moment (field-independent basis, Debye-Ang):
   XX=           -176.9615   YY=           -175.7231   ZZ=           -242.4089
   XY=              5.6697   XZ=             -0.0005   YZ=              0.0002

 1\1\GINC-GCN-15-42\SP\RB3LYP\3-21G\C36H20N2O2\ATOMLINS\12-Jun-2012\0\\
 # b3lyp/3-21g geom=connectivity pop=regular\\4a_TON_3J_4a_3_21G_pop_DF
 T\\0,1\C,0,0.8469,1.04114,-0.000054\C,0,-0.542235,1.274194,-0.000057\C
 ,0,1.477653,-0.20954,-0.000048\C,0,-1.477643,0.209551,-0.000058\C,0,0.
 542244,-1.274185,-0.00005\C,0,-0.846891,-1.04113,-0.000054\O,0,1.46060
 5,2.264131,-0.000057\N,0,-0.76445,2.640199,-0.000051\C,0,0.423445,3.17
 295,-0.000083\O,0,-1.460596,-2.264122,-0.000052\N,0,0.764459,-2.64019,
 -0.000059\C,0,-0.423435,-3.172941,-0.000028\C,0,2.877703,-0.388808,-0.

 Normal termination of Gaussian 09 at Tue Jun 12 08:40:19 2012.
