 Gaussian 09, Revision C.01,
 Gaussian 09:  AM64L-G09RevC.01 23-Sep-2011

 --------------------------------------
 # opt b3lyp/6-31g(d) geom=connectivity
 --------------------------------------

 99/9=1/99;
 ------------------
 24a_TON_2J_24a_DFT
 ------------------
 Charge =  0 Multiplicity = 1

 SCF Done:  E(RB3LYP) =  -1800.04337680     A.U. after   14 cycles
 SCF Done:  E(RB3LYP) =  -1800.15461371     A.U. after   11 cycles
 SCF Done:  E(RB3LYP) =  -1800.36750703     A.U. after   12 cycles
 SCF Done:  E(RB3LYP) =  -1800.66992906     A.U. after   13 cycles
 SCF Done:  E(RB3LYP) =  -1800.82855460     A.U. after   13 cycles
 SCF Done:  E(RB3LYP) =  -1800.94759502     A.U. after   12 cycles
 SCF Done:  E(RB3LYP) =  -1801.01808780     A.U. after   15 cycles
 SCF Done:  E(RB3LYP) =  -1801.05452913     A.U. after   14 cycles
 SCF Done:  E(RB3LYP) =  -1801.05054332     A.U. after   12 cycles
 SCF Done:  E(RB3LYP) =  -1801.06540755     A.U. after   12 cycles
 SCF Done:  E(RB3LYP) =  -1801.06713323     A.U. after   12 cycles
 SCF Done:  E(RB3LYP) =  -1801.06772352     A.U. after   11 cycles
 SCF Done:  E(RB3LYP) =  -1801.06828217     A.U. after   11 cycles
 SCF Done:  E(RB3LYP) =  -1801.06827480     A.U. after    9 cycles
 SCF Done:  E(RB3LYP) =  -1801.06828961     A.U. after    8 cycles
 Optimization completed.
    -- Stationary point found.

                         Standard orientation:
 ---------------------------------------------------------------------
 Center     Atomic      Atomic             Coordinates (Angstroms)
 Number     Number       Type             X           Y           Z
 ---------------------------------------------------------------------
      1          6           0       -1.101835    0.771016    0.000011
      2          6           0       -1.213938   -0.635430    0.000011
      3          6           0        0.091653    1.502998    0.000007
      4          6           0       -0.091653   -1.502997    0.000014
      5          6           0        1.213938    0.635431    0.000004
      6          6           0        1.101836   -0.771016    0.000010
      7          8           0       -2.380688    1.271406    0.000010
      8          7           0       -2.554636   -0.978226    0.000011
      9          6           0       -3.196160    0.156784    0.000015
     10          8           0        2.380688   -1.271406    0.000007
     11          7           0        2.554636    0.978227   -0.000005
     12          6           0        3.196160   -0.156783    0.000009
     13          6           0       -4.615919    0.407769    0.000024
     14          1           0       -4.901647    1.455184    0.000041
     15          6           0       -5.529114   -0.587732    0.000002
     16          1           0       -5.146797   -1.607039    0.000020
     17          6           0       -7.650717    0.786264    0.000184
     18          6           0       -9.039631    0.847879    0.000169
     19          6           0       -6.983537   -0.455416   -0.000025
     20          6           0       -9.800170   -0.326364   -0.000076
     21          1           0       -9.534595    1.815324    0.000326
     22          6           0       -7.765179   -1.626455   -0.000299
     23          6           0       -9.156718   -1.564594   -0.000313
     24          1           0       -7.266779   -2.592828   -0.000477
     25          1           0      -10.885383   -0.273363   -0.000096
     26          1           0       -7.078617    1.709386    0.000329
     27          1           0       -9.738025   -2.482508   -0.000504
     28          6           0        4.615919   -0.407769    0.000011
     29          1           0        4.901646   -1.455184   -0.000001
     30          6           0        5.529115    0.587732    0.000015
     31          1           0        5.146798    1.607039    0.000060
     32          6           0        7.650717   -0.786265    0.000160
     33          6           0        9.039631   -0.847882    0.000144
     34          6           0        6.983538    0.455415   -0.000016
     35          6           0        9.800170    0.326362   -0.000071
     36          1           0        9.534594   -1.815326    0.000275
     37          6           0        7.765180    1.626453   -0.000259
     38          6           0        9.156720    1.564592   -0.000276
     39          1           0        7.266781    2.592827   -0.000412
     40          1           0       10.885309    0.273364   -0.000092
     41          1           0        7.078617   -1.709387    0.000280
     42          1           0        9.738027    2.482505   -0.000442
     43          6           0        0.264408    2.941939    0.000008
     44          1           0        1.306393    3.250572   -0.000052
     45          6           0       -0.717732    3.872897    0.000054
     46          1           0       -1.752031    3.539083    0.000108
     47          6           0       -1.686956    6.144025   -0.000036
     48          6           0       -0.540682    5.325832    0.000047
     49          6           0        0.718072    5.961010    0.000112
     50          6           0        0.818673    7.348108    0.000091
     51          6           0       -0.331785    8.143771    0.000009
     52          6           0       -1.586711    7.533511   -0.000050
     53          1           0       -2.668035    5.674482   -0.000087
     54          1           0        1.625175    5.364240    0.000180
     55          1           0        1.800657    7.814220    0.000139
     56          1           0       -0.248045    9.227125   -0.000008
     57          1           0       -2.488971    8.139569   -0.000111
     58          6           0       -0.264407   -2.941938    0.000021
     59          1           0       -1.306392   -3.250571   -0.000025
     60          6           0        0.717732   -3.872896    0.000057
     61          1           0        1.752032   -3.539082    0.000096
     62          6           0        1.686956   -6.144024   -0.000034
     63          6           0        0.540683   -5.325831    0.000055
     64          6           0       -0.718071   -5.961009    0.000130
     65          6           0       -0.818673   -7.348107    0.000113
     66          6           0        0.331785   -8.143770    0.000026
     67          6           0        1.586711   -7.533511   -0.000043
     68          1           0        2.668036   -5.674482   -0.000093
     69          1           0       -1.625175   -5.364239    0.000202
     70          1           0       -1.800656   -7.814219    0.000170
     71          1           0        0.248045   -9.227124    0.000013
     72          1           0        2.488971   -8.139568   -0.000109
 ---------------------------------------------------------------------

 The electronic state is 1-A.
 Alpha  occ. eigenvalues --  -19.22251 -19.22251 -14.33154 -14.33154 -10.28555
 Alpha  occ. eigenvalues --  -10.28555 -10.25014 -10.25013 -10.22431 -10.22430
 Alpha  occ. eigenvalues --  -10.21046 -10.21045 -10.21010 -10.21010 -10.20903
 Alpha  occ. eigenvalues --  -10.20903 -10.20732 -10.20732 -10.20029 -10.20029
 Alpha  occ. eigenvalues --  -10.20005 -10.20004 -10.19965 -10.19965 -10.19910
 Alpha  occ. eigenvalues --  -10.19910 -10.19831 -10.19831 -10.19577 -10.19577
 Alpha  occ. eigenvalues --  -10.19019 -10.19019 -10.18862 -10.18862 -10.18791
 Alpha  occ. eigenvalues --  -10.18791 -10.18754 -10.18754 -10.18716 -10.18716
 Alpha  occ. eigenvalues --  -10.18660 -10.18660 -10.18618 -10.18618  -1.12711
 Alpha  occ. eigenvalues --   -1.12618  -0.92875  -0.92796  -0.86930  -0.86651
 Alpha  occ. eigenvalues --   -0.86310  -0.85329  -0.85203  -0.81719  -0.80890
 Alpha  occ. eigenvalues --   -0.80765  -0.78574  -0.77028  -0.76324  -0.75495
 Alpha  occ. eigenvalues --   -0.75361  -0.75137  -0.74151  -0.74129  -0.72821
 Alpha  occ. eigenvalues --   -0.71855  -0.70170  -0.67952  -0.64447  -0.64336
 Alpha  occ. eigenvalues --   -0.62951  -0.61958  -0.61822  -0.61380  -0.60436
 Alpha  occ. eigenvalues --   -0.60027  -0.59936  -0.59455  -0.58309  -0.57307
 Alpha  occ. eigenvalues --   -0.56082  -0.55255  -0.54811  -0.54498  -0.52391
 Alpha  occ. eigenvalues --   -0.52326  -0.51727  -0.51044  -0.50315  -0.48960
 Alpha  occ. eigenvalues --   -0.48237  -0.47268  -0.47205  -0.46961  -0.46949
 Alpha  occ. eigenvalues --   -0.46836  -0.46071  -0.46028  -0.45542  -0.45267
 Alpha  occ. eigenvalues --   -0.44107  -0.43915  -0.43306  -0.42939  -0.42802
 Alpha  occ. eigenvalues --   -0.42614  -0.42234  -0.42024  -0.41706  -0.41455
 Alpha  occ. eigenvalues --   -0.41290  -0.41103  -0.39784  -0.38697  -0.38448
 Alpha  occ. eigenvalues --   -0.38323  -0.38211  -0.38158  -0.37184  -0.37120
 Alpha  occ. eigenvalues --   -0.36120  -0.36073  -0.36004  -0.35681  -0.35600
 Alpha  occ. eigenvalues --   -0.35498  -0.34747  -0.34739  -0.34362  -0.33917
 Alpha  occ. eigenvalues --   -0.33410  -0.33293  -0.33280  -0.31970  -0.30340
 Alpha  occ. eigenvalues --   -0.30140  -0.29362  -0.28834  -0.28790  -0.26047
 Alpha  occ. eigenvalues --   -0.25945  -0.25916  -0.25691  -0.24752  -0.24747
 Alpha  occ. eigenvalues --   -0.23727  -0.21770  -0.20369  -0.18251
 Alpha virt. eigenvalues --   -0.08471  -0.06020  -0.05463  -0.02344  -0.00795
 Alpha virt. eigenvalues --   -0.00768   0.00358   0.00435   0.00788   0.02253
 Alpha virt. eigenvalues --    0.02516   0.04302   0.06278   0.08650   0.08678

 Mulliken atomic charges:
              1
     1  C    0.228161
     2  C    0.134390
     3  C    0.147080
     4  C    0.147080
     5  C    0.134390
     6  C    0.228162
     7  O   -0.545027
     8  N   -0.571972
     9  C    0.560090
    10  O   -0.545027
    11  N   -0.571972
    12  C    0.560090
    13  C   -0.201685
    14  H    0.151857
    15  C   -0.166271
    16  H    0.164959
    17  C   -0.172994
    18  C   -0.130947
    19  C    0.171699
    20  C   -0.124999
    21  H    0.136036
    22  C   -0.188899
    23  C   -0.131227
    24  H    0.137586
    25  H    0.136058
    26  H    0.133627
    27  H    0.136645
    28  C   -0.201685
    29  H    0.151857
    30  C   -0.166271
    31  H    0.164959
    32  C   -0.172995
    33  C   -0.130947
    34  C    0.171700
    35  C   -0.124995
    36  H    0.136036
    37  C   -0.188900
    38  C   -0.131226
    39  H    0.137586
    40  H    0.136058
    41  H    0.133627
    42  H    0.136644
    43  C   -0.171576
    44  H    0.157861
    45  C   -0.205511
    46  H    0.149622
    47  C   -0.195206
    48  C    0.180439
    49  C   -0.178256
    50  C   -0.131891
    51  C   -0.128707
    52  C   -0.130778
    53  H    0.126490
    54  H    0.135643
    55  H    0.129665
    56  H    0.129023
    57  H    0.129015
    58  C   -0.171576
    59  H    0.157861
    60  C   -0.205511
    61  H    0.149622
    62  C   -0.195206
    63  C    0.180439
    64  C   -0.178256
    65  C   -0.131891
    66  C   -0.128707
    67  C   -0.130778
    68  H    0.126490
    69  H    0.135643
    70  H    0.129665
    71  H    0.129023
    72  H    0.129015
 Sum of Mulliken atomic charges =   0.00000

 Dipole moment (field-independent basis, Debye):
    X=              0.0001    Y=              0.0000    Z=             -0.0001  Tot=              0.0001
 Quadrupole moment (field-independent basis, Debye-Ang):
   XX=           -180.0559   YY=           -224.2692   ZZ=           -264.0376
   XY=             -2.2067   XZ=              0.0000   YZ=              0.0003

 Normal termination of Gaussian 09 at Tue Feb 28 23:50:41 2012.
