 Gaussian 09, Revision A.02,
 Gaussian 09:  EM64L-G09RevA.02 11-Jun-2009

 --------------------------------------------------
 # td=(nstates=10) b3lyp/6-31g(d) geom=connectivity
 --------------------------------------------------

 ------------------
 4a_CON_2J_4a_TDDFT
 ------------------
 Symbolic Z-matrix:
 Charge =  0 Multiplicity = 1

                         Standard orientation:
 ---------------------------------------------------------------------
 Center     Atomic      Atomic             Coordinates (Angstroms)
 Number     Number       Type             X           Y           Z
 ---------------------------------------------------------------------
      1          6           0        0.000005    1.414297    0.000010
      2          6           0        1.140709    0.604112    0.014719
      3          6           0        1.172437   -0.809520    0.013073
      4          6           0        0.000009   -1.596284    0.000018
      5          6           0       -1.172422   -0.809524   -0.013044
      6          6           0       -1.140695    0.604107   -0.014698
      7          7           0       -2.506616   -1.209545    0.015043
      8          6           0       -3.198091   -0.112056    0.026782
      9          8           0       -2.440974    1.040566    0.010525
     10          8           0        2.440986    1.040570   -0.010518
     11          6           0        3.198104   -0.112050   -0.026780
     12          7           0        2.506632   -1.209540   -0.015025
     13          6           0       -0.000009    2.893334    0.000013
     14          6           0        0.989683    3.613481    0.692433
     15          6           0       -0.989720    3.613453   -0.692407
     16          6           0        0.987219    5.006900    0.691852
     17          1           0        1.756946    3.077991    1.240765
     18          6           0       -0.987294    5.006872   -0.691831
     19          1           0       -1.756972    3.077933   -1.240727
     20          6           0       -0.000047    5.710611    0.000009
     21          1           0        1.757838    5.543986    1.238563
     22          1           0       -1.757929    5.543936   -1.238542
     23          1           0       -0.000061    6.797244    0.000006
     24          6           0        0.000009   -3.074400    0.000026
     25          6           0       -1.027737   -3.797371   -0.635094
     26          6           0        1.027752   -3.797368    0.635153
     27          6           0       -1.023692   -5.190381   -0.635904
     28          1           0       -1.831272   -3.261496   -1.125128
     29          6           0        1.023702   -5.190378    0.635978
     30          1           0        1.831289   -3.261492    1.125184
     31          6           0        0.000004   -5.894743    0.000041
     32          1           0       -1.824628   -5.727113   -1.137914
     33          1           0        1.824636   -5.727107    1.137994
     34          1           0        0.000002   -6.981684    0.000046
     35          6           0       -4.648956    0.034816    0.058047
     36          6           0       -5.251597    1.302552    0.088818
     37          6           0       -5.453243   -1.117361    0.060333
     38          6           0       -6.640142    1.412123    0.118946
     39          1           0       -4.630648    2.192180    0.093103
     40          6           0       -6.838836   -0.998493    0.090614
     41          1           0       -4.974749   -2.090874    0.040369
     42          6           0       -7.436723    0.265148    0.119228
     43          1           0       -7.100939    2.395723    0.143516
     44          1           0       -7.455559   -1.892955    0.092519
     45          1           0       -8.519370    0.354606    0.142915
     46          6           0        4.648967    0.034830   -0.058069
     47          6           0        5.251600    1.302570   -0.088746
     48          6           0        5.453261   -1.117344   -0.060487
     49          6           0        6.640144    1.412152   -0.118911
     50          1           0        4.630646    2.192196   -0.092933
     51          6           0        6.838852   -0.998465   -0.090807
     52          1           0        4.974772   -2.090861   -0.040595
     53          6           0        7.436731    0.265182   -0.119325
     54          1           0        7.100935    2.395757   -0.143411
     55          1           0        7.455580   -1.892924   -0.092814
     56          1           0        8.519377    0.354648   -0.143038
 ---------------------------------------------------------------------

 SCF Done:  E(RB3LYP) =  -1491.44515528     A.U. after   16 cycles

 Excitation energies and oscillator strengths:

 Excited State   1:      Singlet-A      3.3422 eV  370.97 nm  f=0.3255  <S**2>=0.000
     121 ->122         0.69962
 This state for optimization and/or second-order correction.
 Copying the excited state density for this state as the 1-particle RhoCI density.

 Excited State   2:      Singlet-A      3.5298 eV  351.25 nm  f=0.4795  <S**2>=0.000
     120 ->122         0.63278
     121 ->123         0.29615

 Excited State   3:      Singlet-A      3.8263 eV  324.03 nm  f=0.6884  <S**2>=0.000
     120 ->122        -0.29842
     121 ->123         0.63714

 Excited State   4:      Singlet-A      4.0977 eV  302.57 nm  f=0.0167  <S**2>=0.000
     119 ->122         0.69547

 Excited State   5:      Singlet-A      4.2317 eV  292.99 nm  f=0.3195  <S**2>=0.000
     118 ->122        -0.24884
     120 ->123        -0.13907
     121 ->124         0.64036

 Excited State   6:      Singlet-A      4.2834 eV  289.45 nm  f=0.0316  <S**2>=0.000
     116 ->122         0.14571
     120 ->123         0.66053
     121 ->124         0.16192

 Excited State   7:      Singlet-A      4.3457 eV  285.31 nm  f=0.0740  <S**2>=0.000
     118 ->122         0.65074
     120 ->123        -0.11962
     121 ->124         0.22679

 Excited State   8:      Singlet-A      4.5056 eV  275.18 nm  f=0.1363  <S**2>=0.000
     120 ->124         0.68972

 Excited State   9:      Singlet-A      4.5132 eV  274.72 nm  f=0.0013  <S**2>=0.000
     117 ->122         0.66898
     121 ->127         0.18352

 Excited State  10:      Singlet-A      4.6308 eV  267.74 nm  f=0.0031  <S**2>=0.000
     114 ->123         0.17717
     115 ->122         0.54491
     120 ->126         0.27482
     121 ->125        -0.25796

 The electronic state is 1-A.
 Alpha  occ. eigenvalues --  -19.22550 -19.22550 -14.33310 -14.33310 -10.28734
 Alpha  occ. eigenvalues --  -10.28734 -10.25694 -10.25694 -10.22486 -10.22485
 Alpha  occ. eigenvalues --  -10.21908 -10.21359 -10.21359 -10.21070 -10.20869
 Alpha  occ. eigenvalues --  -10.20168 -10.20168 -10.20090 -10.20090 -10.19927
 Alpha  occ. eigenvalues --  -10.19927 -10.19921 -10.19921 -10.19835 -10.19835
 Alpha  occ. eigenvalues --  -10.19342 -10.19321 -10.19280 -10.19260 -10.19223
 Alpha  occ. eigenvalues --  -10.19214 -10.18164 -10.17936 -10.17930 -10.17764
 Alpha  occ. eigenvalues --  -10.17764  -1.13168  -1.13052  -0.93277  -0.92705
 Alpha  occ. eigenvalues --   -0.87983  -0.86626  -0.86292  -0.85058  -0.84045
 Alpha  occ. eigenvalues --   -0.79156  -0.78925  -0.77263  -0.75410  -0.75382
 Alpha  occ. eigenvalues --   -0.74912  -0.74719  -0.73349  -0.72748  -0.71466
 Alpha  occ. eigenvalues --   -0.67333  -0.64271  -0.63277  -0.62751  -0.61881
 Alpha  occ. eigenvalues --   -0.60976  -0.60317  -0.59772  -0.59227  -0.59081
 Alpha  occ. eigenvalues --   -0.57053  -0.56718  -0.54672  -0.54477  -0.52299
 Alpha  occ. eigenvalues --   -0.51877  -0.50619  -0.50004  -0.48733  -0.48212
 Alpha  occ. eigenvalues --   -0.47520  -0.47226  -0.47130  -0.46115  -0.45851
 Alpha  occ. eigenvalues --   -0.44934  -0.44735  -0.44028  -0.43525  -0.42962
 Alpha  occ. eigenvalues --   -0.42949  -0.42900  -0.42724  -0.42182  -0.42167
 Alpha  occ. eigenvalues --   -0.41075  -0.40713  -0.39941  -0.38465  -0.38344
 Alpha  occ. eigenvalues --   -0.37684  -0.37040  -0.36735  -0.36243  -0.36000
 Alpha  occ. eigenvalues --   -0.35309  -0.35154  -0.34972  -0.34626  -0.34198
 Alpha  occ. eigenvalues --   -0.34001  -0.33473  -0.33037  -0.32703  -0.29106
 Alpha  occ. eigenvalues --   -0.28746  -0.28056  -0.27782  -0.25982  -0.25943
 Alpha  occ. eigenvalues --   -0.25471  -0.25239  -0.24437  -0.23818  -0.21413
 Alpha  occ. eigenvalues --   -0.20226
 Alpha virt. eigenvalues --   -0.06734  -0.04397  -0.02919  -0.00828  -0.00786
 Alpha virt. eigenvalues --   -0.00229   0.00379   0.01197   0.02485   0.04160
 Alpha virt. eigenvalues --    0.06464   0.06796   0.08002   0.09051   0.09659

 Mulliken atomic charges:
              1
     1  C    0.030150
     2  C    0.235741
     3  C    0.160610
     4  C    0.062054
     5  C    0.160613
     6  C    0.235742
     7  N   -0.563786
     8  C    0.494810
     9  O   -0.538698
    10  O   -0.538697
    11  C    0.494811
    12  N   -0.563786
    13  C    0.123408
    14  C   -0.165651
    15  C   -0.165651
    16  C   -0.137774
    17  H    0.144811
    18  C   -0.137774
    19  H    0.144813
    20  C   -0.123715
    21  H    0.131601
    22  H    0.131602
    23  H    0.131258
    24  C    0.104629
    25  C   -0.152550
    26  C   -0.152550
    27  C   -0.141748
    28  H    0.151937
    29  C   -0.141748
    30  H    0.151937
    31  C   -0.122634
    32  H    0.125971
    33  H    0.125971
    34  H    0.125638
    35  C    0.072015
    36  C   -0.167758
    37  C   -0.156773
    38  C   -0.137299
    39  H    0.156562
    40  C   -0.137984
    41  H    0.167348
    42  C   -0.119354
    43  H    0.137228
    44  H    0.138668
    45  H    0.136675
    46  C    0.072015
    47  C   -0.167758
    48  C   -0.156772
    49  C   -0.137299
    50  H    0.156561
    51  C   -0.137984
    52  H    0.167348
    53  C   -0.119354
    54  H    0.137228
    55  H    0.138668
    56  H    0.136675
 Sum of Mulliken atomic charges =   0.00000

 Dipole moment (field-independent basis, Debye):
    X=              0.0000    Y=              2.1818    Z=              0.0000  Tot=              2.1818
 Quadrupole moment (field-independent basis, Debye-Ang):
   XX=           -160.5455   YY=           -184.0838   ZZ=           -208.0869
   XY=              0.0000   XZ=              5.5648   YZ=              0.0007

 Normal termination of Gaussian 09 at Fri Oct 15 12:29:03 2010.
