 Gaussian 09, Revision B.01,
 Gaussian 09:  EM64L-G09RevB.01 12-Aug-2010

 ----------------------
 # td mpw1pw91/6-31g(d)
 ----------------------

 --------------------------------
 TON_B25i_mPW1PW91_6_31d_n4_TDDFT
 --------------------------------
 Symbolic Z-matrix:
 Charge =  0 Multiplicity = 1

                         Standard orientation:
 ---------------------------------------------------------------------
 Center     Atomic      Atomic             Coordinates (Angstroms)
 Number     Number       Type             X           Y           Z
 ---------------------------------------------------------------------
      1          6           0      -24.579910    9.867905    0.207766
      2          8           0      -23.242245   10.093631    0.276704
      3          7           0      -24.952072    8.640779    0.113078
      4          6           0      -22.696504    8.848360    0.218074
      5          6           0      -23.761977    7.932944    0.115416
      6          6           0      -21.354177    8.508942    0.250552
      7          6           0      -23.522602    6.558153    0.035643
      8          6           0      -21.113517    7.135060    0.170760
      9          6           0      -22.183775    6.218017    0.067692
     10          7           0      -19.930999    6.433986    0.172266
     11          8           0      -21.642793    4.975532    0.008049
     12          6           0      -20.287030    5.186111    0.075941
     13          6           0      -19.419860    4.047252    0.034075
     14          1           0      -18.364067    4.288639    0.093237
     15          6           0      -19.870677    2.776268   -0.071643
     16          1           0      -20.944471    2.628170   -0.125966
     17          6           0      -19.069844    1.587698   -0.122415
     18          6           0      -19.517588    0.274509   -0.236628
     19         16           0      -17.341657    1.648281   -0.044916
     20          6           0      -18.459489   -0.673953   -0.260971
     21          6           0      -17.206150   -0.079398   -0.158099
     22          1           0      -25.206523   10.746408    0.239304
     23          6           0      -15.879607   -0.631451   -0.139018
     24          6           0      -15.522162   -1.936074   -0.067617
     25          1           0      -15.071283    0.095195   -0.177065
     26          1           0      -16.236401   -2.743396    0.004144
     27          6           0      -20.959360   -0.125231   -0.332451
     28          1           0      -21.635277    0.725351   -0.244895
     29          1           0      -21.171398   -0.611444   -1.290870
     30          1           0      -21.224133   -0.834199    0.458539
     31          6           0      -18.685605   -2.148025   -0.403599
     32          1           0      -18.068255   -2.569851   -1.203071
     33          1           0      -18.441880   -2.686485    0.519543
     34          1           0      -19.727278   -2.367724   -0.642301
     35          6           0      -14.157566   -2.372923   -0.059851
     36          8           0      -13.161482   -1.433445   -0.141744
     37          7           0      -13.743056   -3.605004    0.019585
     38          6           0      -12.011016   -2.152294   -0.109120
     39          6           0      -12.373222   -3.513892   -0.008301
     40          6           0      -10.714396   -1.675909   -0.162442
     41          6           0      -11.394195   -4.511922    0.046341
     42          6           0       -9.735853   -2.674086   -0.107294
     43          6           0      -10.097954   -4.036234   -0.006970
     44          7           0       -8.366194   -2.582407   -0.133768
     45          8           0       -8.947865   -4.755007    0.025977
     46          6           0       -7.950602   -3.813798   -0.054013
     47          6           0       -6.590191   -4.257537   -0.041712
     48          1           0       -5.861885   -3.456031   -0.103384
     49          6           0       -6.230490   -5.559391    0.038745
     50          1           0       -7.023859   -6.297970    0.093644
     51          6           0       -4.890903   -6.070966    0.059998
     52          6           0       -4.496743   -7.404905    0.125102
     53         16           0       -3.515998   -5.021395    0.005154
     54          6           0       -3.085266   -7.568320    0.129026
     55          6           0       -5.443338   -8.566158    0.184435
     56          6           0       -2.405780   -6.355717    0.067025
     57          6           0       -2.415214   -8.906529    0.195260
     58          1           0       -5.291276   -9.152523    1.096696
     59          1           0       -6.487632   -8.254232    0.170149
     60          1           0       -5.293906   -9.240060   -0.665663
     61          6           0       -1.005792   -6.035369    0.049332
     62          1           0       -1.795089   -9.089091   -0.689231
     63          1           0       -1.766222   -8.986834    1.074065
     64          1           0       -3.145806   -9.714432    0.253680
     65          6           0        0.048867   -6.885792    0.070706
     66          1           0       -0.772888   -4.973629    0.013403
     67          1           0       -0.053663   -7.960625    0.102310
     68          6           0        1.409884   -6.438553    0.051390
     69          8           0        1.662556   -5.090741    0.014993
     70          7           0        2.470660   -7.194157    0.065892
     71          6           0        3.016290   -4.997344    0.006336
     72          6           0        3.524951   -6.314759    0.037980
     73          6           0        3.784246   -3.848287   -0.025747
     74          6           0        4.904452   -6.548006    0.037984
     75          6           0        5.163467   -4.081952   -0.025128
     76          6           0        5.672447   -5.399761    0.005946
     77          7           0        6.217532   -3.202298   -0.050520
     78          8           0        7.025761   -5.306656   -0.001126
     79          6           0        7.278638   -3.956800   -0.035297
     80          6           0        8.641136   -3.519297   -0.049468
     81          1           0        8.762039   -2.441641   -0.073961
     82          6           0        9.694790   -4.368087   -0.033394
     83          1           0        9.481700   -5.432058   -0.010753
     84          6           0       11.081915   -4.005179   -0.042699
     85          6           0       12.178158   -4.863061   -0.039057
     86         16           0       11.591088   -2.350501   -0.057013
     87          6           0       13.422465   -4.176486   -0.047227
     88          6           0       12.084252   -6.359353   -0.035703
     89          6           0       13.270401   -2.794013   -0.048475
     90          6           0       14.744538   -4.880503   -0.077233
     91          1           0       12.627068   -6.785958    0.813876
     92          1           0       11.054861   -6.712318    0.026046
     93          1           0       12.519014   -6.784295   -0.947026
     94          6           0       14.228591   -1.722780   -0.053124
     95          1           0       15.403888   -4.455129   -0.840096
     96          1           0       15.265164   -4.808354    0.884912
     97          1           0       14.623091   -5.941578   -0.301108
     98          6           0       15.566529   -1.806438    0.140228
     99          1           0       13.818635   -0.729238   -0.219525
    100          1           0       16.076817   -2.735440    0.350027
    101          6           0       16.435232   -0.667189    0.110615
    102          8           0       15.897373    0.569066   -0.141410
    103          7           0       17.722970   -0.675191    0.303837
    104          6           0       16.956574    1.416627   -0.099946
    105          6           0       18.101839    0.639024    0.178628
    106          6           0       16.952068    2.786235   -0.290354
    107          6           0       19.362690    1.236852    0.283704
    108          6           0       18.212247    3.383389   -0.184898
    109          6           0       19.358546    2.605178    0.093327
    110          7           0       18.590344    4.697490   -0.309621
    111          8           0       20.417277    3.452242    0.134062
    112          6           0       19.878528    4.691455   -0.116965
    113          6           0       20.753033    5.823244   -0.142455
    114          1           0       20.254373    6.765352   -0.342848
    115          6           0       22.087997    5.740324    0.063515
    116          1           0       22.506482    4.757572    0.258259
    117          6           0       23.021581    6.827874    0.053473
    118          6           0       24.391542    6.767309    0.269626
    119         16           0       22.518318    8.461552   -0.251129
    120          6           0       25.026627    8.041407    0.188896
    121          6           0       25.155603    5.515009    0.574216
    122          6           0       24.138524    9.061733   -0.102048
    123          6           0       26.491023    8.235863    0.440406
    124          1           0       25.557611    5.535894    1.593673
    125          1           0       24.542652    4.617710    0.484931
    126          1           0       26.006249    5.401063   -0.105383
    127          6           0       24.350601   10.489987   -0.271930
    128          1           0       27.081700    8.136856   -0.478458
    129          1           0       26.689924    9.227969    0.853142
    130          1           0       26.870529    7.494188    1.148045
    131          6           0       25.475966   11.090977   -0.679890
    132          1           0       23.486318   11.116331   -0.058423
    133          1           0       25.521636   12.171293   -0.761992
    134          1           0       26.364616   10.542432   -0.968217
    135         17           0      -20.098809    9.671132    0.377421
    136         17           0      -24.780537    5.396307   -0.091601
    137         17           0      -11.773587   -6.182603    0.169493
    138         17           0      -10.335935   -0.006152   -0.285096
    139         17           0        5.582321   -8.125944    0.075197
    140         17           0        3.106148   -2.271678   -0.062361
    141         17           0       20.790977    0.343456    0.620805
    142         17           0       15.523574    3.677708   -0.627039
 ---------------------------------------------------------------------

 SCF Done:  E(RmPW1PW91) =  -9082.28229912     A.U. after   15 cycles

 Excitation energies and oscillator strengths:

 Excited State   1:      Singlet-A      2.1730 eV  570.56 nm  f=5.0178  <S**2>=0.000
     395 -> 399       -0.11186
     396 -> 398       -0.27391
     396 -> 399       -0.12224
     397 -> 398        0.57595
     397 -> 399       -0.20955
 This state for optimization and/or second-order correction.
 Total Energy, E(TD-HF/TD-KS) =  -9082.20244160
 Copying the excited state density for this state as the 1-particle RhoCI density.

 Excited State   2:      Singlet-A      2.4509 eV  505.88 nm  f=1.6709  <S**2>=0.000
     395 -> 398        0.12135
     396 -> 398        0.52858
     397 -> 398        0.11270
     397 -> 399       -0.39845
     397 -> 400        0.10433

 Excited State   3:      Singlet-A      2.5431 eV  487.54 nm  f=0.3148  <S**2>=0.000
     396 -> 398        0.31272
     397 -> 398        0.34182
     397 -> 399        0.48701
     397 -> 400       -0.11735

 The electronic state is 1-A.
 Alpha  occ. eigenvalues -- -101.77882-101.77709-101.77683-101.77605-101.77521
 Alpha  occ. eigenvalues -- -101.77412-101.77343-101.77149 -89.12079 -89.11965
 Alpha  occ. eigenvalues --  -89.11790 -89.10935 -19.34190 -19.33619 -19.33548
 Alpha  occ. eigenvalues --  -19.33462 -19.33421 -19.33325 -19.33183 -19.32911
 Alpha  occ. eigenvalues --  -14.43542 -14.42838 -14.42792 -14.42712 -14.42655
 Alpha  occ. eigenvalues --  -14.42517 -14.42495 -14.42026 -10.36574 -10.36458
 Alpha  occ. eigenvalues --  -10.36372 -10.36332 -10.36249 -10.36239 -10.36074
 Alpha  occ. eigenvalues --  -10.35827 -10.34003 -10.33942 -10.33826 -10.33823
 Alpha  occ. eigenvalues --  -10.33817 -10.33744 -10.33704 -10.33690 -10.33530
 Alpha  occ. eigenvalues --  -10.33471 -10.33420 -10.33410 -10.33350 -10.33337
 Alpha  occ. eigenvalues --  -10.33123 -10.33031 -10.31282 -10.31248 -10.31093
 Alpha  occ. eigenvalues --  -10.31050 -10.30972 -10.30956 -10.30927 -10.30841
 Alpha  occ. eigenvalues --  -10.30778 -10.30684 -10.30675 -10.30661 -10.30593
 Alpha  occ. eigenvalues --  -10.30493 -10.29747 -10.29508 -10.29474 -10.29389
 Alpha  occ. eigenvalues --  -10.29359 -10.29245 -10.29147 -10.29093 -10.28962
 Alpha  occ. eigenvalues --  -10.28860 -10.28710 -10.28683 -10.28623 -10.28571
 Alpha  occ. eigenvalues --  -10.28422 -10.28360 -10.28230 -10.28225 -10.28107
 Alpha  occ. eigenvalues --  -10.28073 -10.27944 -10.27901 -10.27491 -10.27311
 Alpha  occ. eigenvalues --  -10.27220 -10.26716 -10.26635 -10.26604 -10.26540
 Alpha  occ. eigenvalues --  -10.26494 -10.26353 -10.25979 -10.25971 -10.25587
 Alpha  occ. eigenvalues --   -9.55732  -9.55556  -9.55532  -9.55450  -9.55367
 Alpha  occ. eigenvalues --   -9.55257  -9.55189  -9.54994  -8.05539  -8.05428
 Alpha  occ. eigenvalues --   -8.05251  -8.04400  -7.29753  -7.29575  -7.29555
 Alpha  occ. eigenvalues --   -7.29469  -7.29388  -7.29279  -7.29208  -7.29015
 Alpha  occ. eigenvalues --   -7.28746  -7.28695  -7.28572  -7.28548  -7.28521
 Alpha  occ. eigenvalues --   -7.28492  -7.28467  -7.28417  -7.28382  -7.28330
 Alpha  occ. eigenvalues --   -7.28273  -7.28220  -7.28206  -7.28156  -7.28010
 Alpha  occ. eigenvalues --   -7.27959  -5.99597  -5.99485  -5.99309  -5.99237
 Alpha  occ. eigenvalues --   -5.99125  -5.98949  -5.98876  -5.98764  -5.98587
 Alpha  occ. eigenvalues --   -5.98461  -5.98099  -5.97734  -1.19125  -1.18623
 Alpha  occ. eigenvalues --   -1.18587  -1.18459  -1.18432  -1.18300  -1.18199
 Alpha  occ. eigenvalues --   -1.17887  -0.98515  -0.98160  -0.98135  -0.98007
 Alpha  occ. eigenvalues --   -0.97999  -0.97862  -0.97749  -0.97448  -0.94308
 Alpha  occ. eigenvalues --   -0.94192  -0.94014  -0.94001  -0.93844  -0.93716
 Alpha  occ. eigenvalues --   -0.93474  -0.93011  -0.91365  -0.91140  -0.91024
 Alpha  occ. eigenvalues --   -0.90735  -0.87516  -0.87379  -0.87203  -0.86733
 Alpha  occ. eigenvalues --   -0.86505  -0.86328  -0.85961  -0.85475  -0.84892
 Alpha  occ. eigenvalues --   -0.84422  -0.83974  -0.82837  -0.82457  -0.82305
 Alpha  occ. eigenvalues --   -0.82020  -0.81768  -0.81150  -0.80618  -0.79985
 Alpha  occ. eigenvalues --   -0.78799  -0.78378  -0.77824  -0.77501  -0.77026
 Alpha  occ. eigenvalues --   -0.76716  -0.76541  -0.76421  -0.76104  -0.74917
 Alpha  occ. eigenvalues --   -0.74407  -0.73718  -0.72926  -0.71913  -0.71183
 Alpha  occ. eigenvalues --   -0.71002  -0.70863  -0.70630  -0.70063  -0.69647
 Alpha  occ. eigenvalues --   -0.68905  -0.68525  -0.68407  -0.68131  -0.67711
 Alpha  occ. eigenvalues --   -0.67205  -0.66095  -0.65027  -0.64075  -0.63208
 Alpha  occ. eigenvalues --   -0.63025  -0.62817  -0.62653  -0.62621  -0.62565
 Alpha  occ. eigenvalues --   -0.62483  -0.62265  -0.62157  -0.61882  -0.61176
 Alpha  occ. eigenvalues --   -0.60305  -0.59705  -0.59448  -0.59321  -0.58986
 Alpha  occ. eigenvalues --   -0.58616  -0.58056  -0.57864  -0.57389  -0.56577
 Alpha  occ. eigenvalues --   -0.56364  -0.56028  -0.55621  -0.55125  -0.54394
 Alpha  occ. eigenvalues --   -0.54059  -0.53648  -0.52691  -0.52550  -0.52424
 Alpha  occ. eigenvalues --   -0.52322  -0.52118  -0.52108  -0.51919  -0.51671
 Alpha  occ. eigenvalues --   -0.51439  -0.51307  -0.51257  -0.51078  -0.50989
 Alpha  occ. eigenvalues --   -0.50861  -0.50620  -0.50524  -0.50100  -0.49772
 Alpha  occ. eigenvalues --   -0.49622  -0.49362  -0.49043  -0.48757  -0.48715
 Alpha  occ. eigenvalues --   -0.48529  -0.48450  -0.48243  -0.48154  -0.48024
 Alpha  occ. eigenvalues --   -0.47788  -0.47611  -0.47587  -0.47406  -0.47347
 Alpha  occ. eigenvalues --   -0.47261  -0.47106  -0.46966  -0.46417  -0.46065
 Alpha  occ. eigenvalues --   -0.45957  -0.45848  -0.45346  -0.45292  -0.45077
 Alpha  occ. eigenvalues --   -0.44822  -0.44292  -0.44233  -0.44135  -0.44087
 Alpha  occ. eigenvalues --   -0.44035  -0.43870  -0.43701  -0.43645  -0.43443
 Alpha  occ. eigenvalues --   -0.43293  -0.43190  -0.43123  -0.42787  -0.42681
 Alpha  occ. eigenvalues --   -0.42563  -0.42405  -0.41803  -0.41702  -0.41602
 Alpha  occ. eigenvalues --   -0.41503  -0.41277  -0.41255  -0.41110  -0.41077
 Alpha  occ. eigenvalues --   -0.41024  -0.40958  -0.40895  -0.40807  -0.40701
 Alpha  occ. eigenvalues --   -0.40678  -0.40476  -0.40432  -0.40375  -0.40257
 Alpha  occ. eigenvalues --   -0.40105  -0.39782  -0.39546  -0.39437  -0.39325
 Alpha  occ. eigenvalues --   -0.39257  -0.38511  -0.38040  -0.37908  -0.37785
 Alpha  occ. eigenvalues --   -0.37071  -0.36891  -0.36806  -0.36758  -0.36653
 Alpha  occ. eigenvalues --   -0.36642  -0.36468  -0.36184  -0.35907  -0.35702
 Alpha  occ. eigenvalues --   -0.35616  -0.35408  -0.35198  -0.34989  -0.34823
 Alpha  occ. eigenvalues --   -0.34631  -0.34483  -0.34297  -0.34187  -0.34074
 Alpha  occ. eigenvalues --   -0.34026  -0.33927  -0.33917  -0.33836  -0.33727
 Alpha  occ. eigenvalues --   -0.33586  -0.33464  -0.33115  -0.32521  -0.32400
 Alpha  occ. eigenvalues --   -0.32171  -0.32046  -0.31923  -0.31777  -0.31761
 Alpha  occ. eigenvalues --   -0.31699  -0.31574  -0.31216  -0.30961  -0.30056
 Alpha  occ. eigenvalues --   -0.29095  -0.27842  -0.27222  -0.27124  -0.26970
 Alpha  occ. eigenvalues --   -0.26821  -0.26141  -0.25954  -0.25449  -0.24946
 Alpha  occ. eigenvalues --   -0.24733  -0.24446  -0.24009  -0.22798  -0.21891
 Alpha  occ. eigenvalues --   -0.21070  -0.20478
 Alpha virt. eigenvalues --   -0.10928  -0.10237  -0.09402  -0.07939  -0.06644
 Alpha virt. eigenvalues --   -0.05603  -0.04543  -0.03044  -0.02311  -0.01446
 Alpha virt. eigenvalues --   -0.00886  -0.00332  -0.00056   0.00514   0.00923

 Mulliken atomic charges:
              1
     1  C    0.258136
     2  O   -0.466218
     3  N   -0.472599
     4  C    0.343759
     5  C    0.213039
     6  C   -0.219532
     7  C   -0.215397
     8  C    0.231343
     9  C    0.351798
    10  N   -0.548805
    11  O   -0.538217
    12  C    0.564543
    13  C   -0.264609
    14  H    0.219587
    15  C   -0.126883
    16  H    0.211787
    17  C   -0.248180
    18  C    0.117265
    19  S    0.330851
    20  C    0.136754
    21  C   -0.229579
    22  H    0.223739
    23  C   -0.169859
    24  C   -0.229280
    25  H    0.213547
    26  H    0.208583
    27  C   -0.608978
    28  H    0.199276
    29  H    0.203781
    30  H    0.202987
    31  C   -0.617985
    32  H    0.207732
    33  H    0.206572
    34  H    0.195204
    35  C    0.560134
    36  O   -0.535361
    37  N   -0.549280
    38  C    0.352211
    39  C    0.229235
    40  C   -0.224082
    41  C   -0.224208
    42  C    0.229932
    43  C    0.353280
    44  N   -0.548377
    45  O   -0.538587
    46  C    0.562910
    47  C   -0.264856
    48  H    0.219534
    49  C   -0.126533
    50  H    0.211092
    51  C   -0.248722
    52  C    0.117075
    53  S    0.330567
    54  C    0.136506
    55  C   -0.609184
    56  C   -0.228437
    57  C   -0.618419
    58  H    0.203016
    59  H    0.199059
    60  H    0.203101
    61  C   -0.169929
    62  H    0.207314
    63  H    0.207499
    64  H    0.195114
    65  C   -0.229829
    66  H    0.213175
    67  H    0.207172
    68  C    0.560351
    69  O   -0.535668
    70  N   -0.549770
    71  C    0.352272
    72  C    0.229206
    73  C   -0.224340
    74  C   -0.224459
    75  C    0.229805
    76  C    0.353372
    77  N   -0.548948
    78  O   -0.538723
    79  C    0.563052
    80  C   -0.264913
    81  H    0.219075
    82  C   -0.127392
    83  H    0.210895
    84  C   -0.248058
    85  C    0.116682
    86  S    0.329300
    87  C    0.136498
    88  C   -0.608253
    89  C   -0.230074
    90  C   -0.617356
    91  H    0.202245
    92  H    0.198806
    93  H    0.203046
    94  C   -0.171031
    95  H    0.207396
    96  H    0.205720
    97  H    0.194243
    98  C   -0.228880
    99  H    0.213290
   100  H    0.208467
   101  C    0.558701
   102  O   -0.535549
   103  N   -0.549352
   104  C    0.351582
   105  C    0.228019
   106  C   -0.225358
   107  C   -0.224654
   108  C    0.230637
   109  C    0.353039
   110  N   -0.551920
   111  O   -0.539124
   112  C    0.563236
   113  C   -0.269571
   114  H    0.215849
   115  C   -0.123347
   116  H    0.208252
   117  C   -0.253665
   118  C    0.118969
   119  S    0.312610
   120  C    0.130101
   121  C   -0.603468
   122  C   -0.233730
   123  C   -0.606220
   124  H    0.200336
   125  H    0.196409
   126  H    0.198313
   127  C   -0.130895
   128  H    0.194481
   129  H    0.200171
   130  H    0.187970
   131  C   -0.390955
   132  H    0.184508
   133  H    0.182645
   134  H    0.184614
   135  Cl   0.096913
   136  Cl   0.089715
   137  Cl   0.086007
   138  Cl   0.092642
   139  Cl   0.085311
   140  Cl   0.092036
   141  Cl   0.083641
   142  Cl   0.088958
 Sum of Mulliken atomic charges =   0.00000

 Dipole moment (field-independent basis, Debye):
    X=              4.0634    Y=             -5.3661    Z=              0.1275  Tot=              6.7322
 Quadrupole moment (field-independent basis, Debye-Ang):
   XX=           -370.4593   YY=           -566.4377   ZZ=           -654.1220
   XY=             87.4657   XZ=             10.6946   YZ=              1.9906

 Normal termination of Gaussian 09 at Tue Nov  8 23:22:47 2011.
