 Gaussian 09, Revision B.01,
 Gaussian 09:  EM64L-G09RevB.01 12-Aug-2010

 ---------------------
 # td mpw3pbe/6-31g(d)
 ---------------------

 -------------------------------
 TON_B25i_mPW3PBE_6_31d_n4_TDDFT
 -------------------------------
 Symbolic Z-matrix:
 Charge =  0 Multiplicity = 1

                         Standard orientation:
 ---------------------------------------------------------------------
 Center     Atomic      Atomic             Coordinates (Angstroms)
 Number     Number       Type             X           Y           Z
 ---------------------------------------------------------------------
      1          6           0      -24.563842    9.913982    0.175658
      2          8           0      -23.221716   10.133875    0.239032
      3          7           0      -24.942974    8.685517    0.092748
      4          6           0      -22.682730    8.882806    0.189813
      5          6           0      -23.755522    7.970969    0.098092
      6          6           0      -21.340620    8.535868    0.221551
      7          6           0      -23.523264    6.592329    0.029756
      8          6           0      -21.106923    7.158001    0.153183
      9          6           0      -22.184610    6.244428    0.061103
     10          7           0      -19.927194    6.450833    0.157747
     11          8           0      -21.650723    4.996384    0.010953
     12          6           0      -20.289787    5.200715    0.073422
     13          6           0      -19.428897    4.057360    0.039543
     14          1           0      -18.369948    4.294842    0.093332
     15          6           0      -19.884983    2.784030   -0.052811
     16          1           0      -20.961470    2.639353   -0.102028
     17          6           0      -19.088945    1.592485   -0.094802
     18          6           0      -19.541912    0.276173   -0.191573
     19         16           0      -17.356890    1.648247   -0.028136
     20          6           0      -18.486993   -0.676296   -0.211184
     21          6           0      -17.227435   -0.084506   -0.124822
     22          1           0      -25.186334   10.797903    0.201224
     23          6           0      -15.902479   -0.638600   -0.108581
     24          6           0      -15.543068   -1.947594   -0.076618
     25          1           0      -15.091946    0.089418   -0.116528
     26          1           0      -16.258491   -2.758809   -0.045740
     27          6           0      -20.987276   -0.118464   -0.272425
     28          1           0      -21.659469    0.739578   -0.209417
     29          1           0      -21.204942   -0.633343   -1.216576
     30          1           0      -21.255789   -0.802831    0.541452
     31          6           0      -18.718089   -2.153064   -0.327351
     32          1           0      -18.150235   -2.582450   -1.161757
     33          1           0      -18.413683   -2.683483    0.584421
     34          1           0      -19.773600   -2.378274   -0.498335
     35          6           0      -14.179125   -2.384571   -0.066557
     36          8           0      -13.179068   -1.440688   -0.101162
     37          7           0      -13.763299   -3.621595   -0.026746
     38          6           0      -12.028105   -2.162718   -0.080264
     39          6           0      -12.392684   -3.529485   -0.033746
     40          6           0      -10.729230   -1.685287   -0.100120
     41          6           0      -11.412776   -4.530730   -0.003344
     42          6           0       -9.749824   -2.686730   -0.069678
     43          6           0      -10.114257   -4.054012   -0.023207
     44          7           0       -8.379400   -2.594118   -0.076902
     45          8           0       -8.963658   -4.776001   -0.002778
     46          6           0       -7.962502   -3.830434   -0.037168
     47          6           0       -6.602781   -4.274588   -0.026542
     48          1           0       -5.873085   -3.469838   -0.054160
     49          6           0       -6.240239   -5.580702    0.013657
     50          1           0       -7.034442   -6.322907    0.038148
     51          6           0       -4.900691   -6.091086    0.027364
     52          6           0       -4.503495   -7.428612    0.061646
     53         16           0       -3.524009   -5.037029    0.001214
     54          6           0       -3.091570   -7.590822    0.065982
     55          6           0       -5.450555   -8.592179    0.090433
     56          6           0       -2.410500   -6.374328    0.035301
     57          6           0       -2.419472   -8.930474    0.099837
     58          1           0       -5.298533   -9.203510    0.988469
     59          1           0       -6.496810   -8.280013    0.084256
     60          1           0       -5.300827   -9.245308   -0.778114
     61          6           0       -1.011389   -6.052156    0.027665
     62          1           0       -1.782677   -9.083449   -0.780703
     63          1           0       -1.783595   -9.039415    0.987579
     64          1           0       -3.150095   -9.742710    0.119608
     65          6           0        0.047170   -6.902735    0.047694
     66          1           0       -0.778862   -4.988060    0.002342
     67          1           0       -0.055004   -7.979683    0.072898
     68          6           0        1.407735   -6.455450    0.037073
     69          8           0        1.661520   -5.103726    0.007375
     70          7           0        2.471841   -7.211933    0.053077
     71          6           0        3.017241   -5.011317    0.004822
     72          6           0        3.526320   -6.331618    0.033344
     73          6           0        3.786678   -3.861139   -0.020046
     74          6           0        4.907970   -6.565105    0.037943
     75          6           0        5.168052   -4.095063   -0.015213
     76          6           0        5.677445   -5.415755    0.013088
     77          7           0        6.222313   -3.214538   -0.034049
     78          8           0        7.032727   -5.323713    0.011067
     79          6           0        7.286734   -3.969933   -0.017829
     80          6           0        8.648809   -3.532667   -0.026556
     81          1           0        8.769673   -2.453014   -0.048652
     82          6           0        9.706239   -4.381621   -0.008515
     83          1           0        9.493514   -5.447697    0.012446
     84          6           0       11.092562   -4.017821   -0.013877
     85          6           0       12.192563   -4.876156   -0.003151
     86         16           0       11.601575   -2.359659   -0.032861
     87          6           0       13.436697   -4.188717   -0.009389
     88          6           0       12.098070   -6.373597    0.006139
     89          6           0       13.284647   -2.802998   -0.017345
     90          6           0       14.760692   -4.891884   -0.029687
     91          1           0       12.632997   -6.797980    0.864290
     92          1           0       11.066288   -6.726707    0.059314
     93          1           0       12.542423   -6.804216   -0.900148
     94          6           0       14.240661   -1.730699   -0.023956
     95          1           0       15.417823   -4.482115   -0.805780
     96          1           0       15.286890   -4.797076    0.929623
     97          1           0       14.640418   -5.959706   -0.229527
     98          6           0       15.584100   -1.811615    0.154032
     99          1           0       13.826627   -0.734998   -0.179595
    100          1           0       16.099887   -2.742651    0.350324
    101          6           0       16.450172   -0.671090    0.122691
    102          8           0       15.906171    0.569577   -0.115336
    103          7           0       17.743360   -0.676949    0.301061
    104          6           0       16.966627    1.418866   -0.080528
    105          6           0       18.118294    0.639397    0.179962
    106          6           0       16.958266    2.791236   -0.262327
    107          6           0       19.381225    1.239706    0.274032
    108          6           0       18.220576    3.390816   -0.168064
    109          6           0       19.373228    2.610815    0.092214
    110          7           0       18.594867    4.707011   -0.289517
    111          8           0       20.433314    3.459549    0.125782
    112          6           0       19.888437    4.703025   -0.112033
    113          6           0       20.760719    5.835910   -0.141441
    114          1           0       20.257065    6.779787   -0.331232
    115          6           0       22.101221    5.756143    0.048646
    116          1           0       22.525058    4.771627    0.233554
    117          6           0       23.031797    6.845706    0.033271
    118          6           0       24.407685    6.788298    0.232685
    119         16           0       22.519755    8.482584   -0.256845
    120          6           0       25.038709    8.064702    0.150584
    121          6           0       25.177584    5.534345    0.521287
    122          6           0       24.143273    9.087308   -0.124254
    123          6           0       26.506865    8.263018    0.383330
    124          1           0       25.597636    5.551832    1.535592
    125          1           0       24.562255    4.635662    0.440004
    126          1           0       26.018384    5.421293   -0.173632
    127          6           0       24.346585   10.517010   -0.289362
    128          1           0       27.083447    8.199426   -0.549837
    129          1           0       26.706186    9.244685    0.825200
    130          1           0       26.905855    7.500981    1.060595
    131          6           0       25.473289   11.133492   -0.678492
    132          1           0       23.471423   11.135798   -0.088419
    133          1           0       25.506197   12.216328   -0.757697
    134          1           0       26.375174   10.597024   -0.954405
    135         17           0      -20.076238    9.693959    0.334807
    136         17           0      -24.790316    5.434589   -0.083862
    137         17           0      -11.795159   -6.207330    0.053675
    138         17           0      -10.347800   -0.009673   -0.157084
    139         17           0        5.586112   -8.146241    0.071719
    140         17           0        3.108305   -2.281376   -0.053599
    141         17           0       20.816967    0.344408    0.588960
    142         17           0       15.522387    3.684585   -0.577063
 ---------------------------------------------------------------------

 SCF Done:  E(RmPW3PBE) =  -9079.37579327     A.U. after   15 cycles

 Excitation energies and oscillator strengths:

 Excited State   1:      Singlet-A      2.0197 eV  613.87 nm  f=4.4258  <S**2>=0.000
     396 -> 398       -0.22790
     396 -> 399        0.10485
     397 -> 398        0.62481
     397 -> 399        0.17736
 This state for optimization and/or second-order correction.
 Total Energy, E(TD-HF/TD-KS) =  -9079.30157009
 Copying the excited state density for this state as the 1-particle RhoCI density.

 Excited State   2:      Singlet-A      2.2698 eV  546.23 nm  f=0.7967  <S**2>=0.000
     395 -> 399       -0.10197
     396 -> 398        0.63670
     397 -> 398        0.26326

 Excited State   3:      Singlet-A      2.3086 eV  537.06 nm  f=1.0630  <S**2>=0.000
     396 -> 398        0.14816
     397 -> 398       -0.13703
     397 -> 399        0.66383

 The electronic state is 1-A.
 Alpha  occ. eigenvalues -- -101.53903-101.53727-101.53714-101.53624-101.53541
 Alpha  occ. eigenvalues -- -101.53433-101.53364-101.53171 -88.89657 -88.89534
 Alpha  occ. eigenvalues --  -88.89361 -88.88551 -19.23807 -19.23216 -19.23140
 Alpha  occ. eigenvalues --  -19.23056 -19.23017 -19.22920 -19.22776 -19.22511
 Alpha  occ. eigenvalues --  -14.34559 -14.33846 -14.33808 -14.33725 -14.33668
 Alpha  occ. eigenvalues --  -14.33531 -14.33505 -14.33050 -10.28871 -10.28751
 Alpha  occ. eigenvalues --  -10.28667 -10.28628 -10.28580 -10.28536 -10.28368
 Alpha  occ. eigenvalues --  -10.28131 -10.26386 -10.26326 -10.26209 -10.26199
 Alpha  occ. eigenvalues --  -10.26187 -10.26113 -10.26089 -10.26073 -10.25889
 Alpha  occ. eigenvalues --  -10.25830 -10.25804 -10.25770 -10.25723 -10.25711
 Alpha  occ. eigenvalues --  -10.25485 -10.25393 -10.23697 -10.23660 -10.23506
 Alpha  occ. eigenvalues --  -10.23463 -10.23393 -10.23387 -10.23343 -10.23272
 Alpha  occ. eigenvalues --  -10.23220 -10.23116 -10.23107 -10.23077 -10.23009
 Alpha  occ. eigenvalues --  -10.22928 -10.22208 -10.21979 -10.21855 -10.21772
 Alpha  occ. eigenvalues --  -10.21737 -10.21622 -10.21524 -10.21471 -10.21414
 Alpha  occ. eigenvalues --  -10.21300 -10.21165 -10.21126 -10.21065 -10.20966
 Alpha  occ. eigenvalues --  -10.20869 -10.20789 -10.20672 -10.20667 -10.20546
 Alpha  occ. eigenvalues --  -10.20503 -10.20385 -10.20369 -10.19974 -10.19808
 Alpha  occ. eigenvalues --  -10.19684 -10.19234 -10.19147 -10.19133 -10.19053
 Alpha  occ. eigenvalues --  -10.19007 -10.18873 -10.18505 -10.18460 -10.18146
 Alpha  occ. eigenvalues --   -9.48393  -9.48214  -9.48204  -9.48111  -9.48028
 Alpha  occ. eigenvalues --   -9.47920  -9.47851  -9.47658  -7.98747  -7.98625
 Alpha  occ. eigenvalues --   -7.98452  -7.97646  -7.24447  -7.24265  -7.24259
 Alpha  occ. eigenvalues --   -7.24162  -7.24082  -7.23973  -7.23901  -7.23710
 Alpha  occ. eigenvalues --   -7.23398  -7.23343  -7.23220  -7.23210  -7.23166
 Alpha  occ. eigenvalues --   -7.23150  -7.23117  -7.23063  -7.23033  -7.22977
 Alpha  occ. eigenvalues --   -7.22926  -7.22869  -7.22858  -7.22804  -7.22664
 Alpha  occ. eigenvalues --   -7.22608  -5.94745  -5.94623  -5.94450  -5.94371
 Alpha  occ. eigenvalues --   -5.94250  -5.94077  -5.93994  -5.93872  -5.93697
 Alpha  occ. eigenvalues --   -5.93646  -5.93272  -5.92891  -1.16496  -1.15972
 Alpha  occ. eigenvalues --   -1.15931  -1.15806  -1.15779  -1.15647  -1.15545
 Alpha  occ. eigenvalues --   -1.15241  -0.96237  -0.95878  -0.95846  -0.95721
 Alpha  occ. eigenvalues --   -0.95715  -0.95580  -0.95462  -0.95171  -0.92141
 Alpha  occ. eigenvalues --   -0.92018  -0.91842  -0.91834  -0.91669  -0.91543
 Alpha  occ. eigenvalues --   -0.91300  -0.90884  -0.89309  -0.89078  -0.88963
 Alpha  occ. eigenvalues --   -0.88676  -0.85459  -0.85316  -0.85138  -0.84726
 Alpha  occ. eigenvalues --   -0.84492  -0.84296  -0.83921  -0.83462  -0.82885
 Alpha  occ. eigenvalues --   -0.82417  -0.81975  -0.80870  -0.80555  -0.80396
 Alpha  occ. eigenvalues --   -0.80109  -0.79828  -0.79242  -0.78710  -0.78072
 Alpha  occ. eigenvalues --   -0.76892  -0.76477  -0.75931  -0.75615  -0.75157
 Alpha  occ. eigenvalues --   -0.74883  -0.74702  -0.74584  -0.74269  -0.73136
 Alpha  occ. eigenvalues --   -0.72633  -0.71955  -0.71197  -0.70161  -0.69475
 Alpha  occ. eigenvalues --   -0.69298  -0.69163  -0.68937  -0.68390  -0.67967
 Alpha  occ. eigenvalues --   -0.67239  -0.66865  -0.66747  -0.66474  -0.66065
 Alpha  occ. eigenvalues --   -0.65555  -0.64462  -0.63415  -0.62478  -0.61626
 Alpha  occ. eigenvalues --   -0.61437  -0.61223  -0.61066  -0.61054  -0.61003
 Alpha  occ. eigenvalues --   -0.60922  -0.60689  -0.60595  -0.60348  -0.59651
 Alpha  occ. eigenvalues --   -0.58801  -0.58201  -0.57933  -0.57801  -0.57472
 Alpha  occ. eigenvalues --   -0.57152  -0.56609  -0.56416  -0.55970  -0.55177
 Alpha  occ. eigenvalues --   -0.54966  -0.54642  -0.54228  -0.53763  -0.53015
 Alpha  occ. eigenvalues --   -0.52684  -0.52288  -0.51245  -0.51093  -0.50980
 Alpha  occ. eigenvalues --   -0.50969  -0.50779  -0.50656  -0.50580  -0.50347
 Alpha  occ. eigenvalues --   -0.50097  -0.49963  -0.49912  -0.49639  -0.49537
 Alpha  occ. eigenvalues --   -0.49411  -0.49334  -0.49076  -0.48822  -0.48495
 Alpha  occ. eigenvalues --   -0.48351  -0.48092  -0.47810  -0.47616  -0.47510
 Alpha  occ. eigenvalues --   -0.47365  -0.47301  -0.47029  -0.47009  -0.46813
 Alpha  occ. eigenvalues --   -0.46579  -0.46395  -0.46369  -0.46182  -0.46153
 Alpha  occ. eigenvalues --   -0.46060  -0.45905  -0.45777  -0.45245  -0.44869
 Alpha  occ. eigenvalues --   -0.44747  -0.44647  -0.44139  -0.44094  -0.43857
 Alpha  occ. eigenvalues --   -0.43610  -0.43162  -0.43085  -0.42955  -0.42893
 Alpha  occ. eigenvalues --   -0.42872  -0.42675  -0.42470  -0.42460  -0.42188
 Alpha  occ. eigenvalues --   -0.42092  -0.42050  -0.41861  -0.41667  -0.41554
 Alpha  occ. eigenvalues --   -0.41441  -0.41271  -0.40653  -0.40542  -0.40438
 Alpha  occ. eigenvalues --   -0.40397  -0.40120  -0.40108  -0.39988  -0.39954
 Alpha  occ. eigenvalues --   -0.39880  -0.39834  -0.39752  -0.39708  -0.39592
 Alpha  occ. eigenvalues --   -0.39560  -0.39364  -0.39290  -0.39263  -0.39144
 Alpha  occ. eigenvalues --   -0.38988  -0.38737  -0.38512  -0.38401  -0.38274
 Alpha  occ. eigenvalues --   -0.38202  -0.37495  -0.36976  -0.36857  -0.36725
 Alpha  occ. eigenvalues --   -0.36046  -0.35873  -0.35817  -0.35776  -0.35700
 Alpha  occ. eigenvalues --   -0.35643  -0.35516  -0.35152  -0.34891  -0.34781
 Alpha  occ. eigenvalues --   -0.34620  -0.34395  -0.34182  -0.33992  -0.33825
 Alpha  occ. eigenvalues --   -0.33640  -0.33408  -0.33218  -0.33130  -0.33110
 Alpha  occ. eigenvalues --   -0.32960  -0.32953  -0.32843  -0.32762  -0.32655
 Alpha  occ. eigenvalues --   -0.32644  -0.32395  -0.32206  -0.31500  -0.31361
 Alpha  occ. eigenvalues --   -0.30991  -0.30924  -0.30869  -0.30768  -0.30588
 Alpha  occ. eigenvalues --   -0.30542  -0.30418  -0.30138  -0.30062  -0.29256
 Alpha  occ. eigenvalues --   -0.28308  -0.27156  -0.26527  -0.26421  -0.26273
 Alpha  occ. eigenvalues --   -0.26136  -0.25472  -0.25277  -0.24752  -0.24240
 Alpha  occ. eigenvalues --   -0.24033  -0.23759  -0.23374  -0.22227  -0.21337
 Alpha  occ. eigenvalues --   -0.20525  -0.19936
 Alpha virt. eigenvalues --   -0.11513  -0.10831  -0.10005  -0.08590  -0.07295
 Alpha virt. eigenvalues --   -0.06294  -0.05275  -0.03805  -0.03101  -0.02227
 Alpha virt. eigenvalues --   -0.01674  -0.01140  -0.00890  -0.00315   0.00077

 Mulliken atomic charges:
              1
     1  C    0.251851
     2  O   -0.455341
     3  N   -0.465121
     4  C    0.337203
     5  C    0.213536
     6  C   -0.215074
     7  C   -0.211024
     8  C    0.232299
     9  C    0.345209
    10  N   -0.542369
    11  O   -0.526792
    12  C    0.553975
    13  C   -0.256497
    14  H    0.212419
    15  C   -0.125756
    16  H    0.204309
    17  C   -0.238846
    18  C    0.122944
    19  S    0.321084
    20  C    0.141919
    21  C   -0.218991
    22  H    0.217763
    23  C   -0.169075
    24  C   -0.221583
    25  H    0.206300
    26  H    0.200216
    27  C   -0.605455
    28  H    0.196171
    29  H    0.200638
    30  H    0.200083
    31  C   -0.613561
    32  H    0.204712
    33  H    0.204046
    34  H    0.191261
    35  C    0.549706
    36  O   -0.524045
    37  N   -0.542934
    38  C    0.345696
    39  C    0.230482
    40  C   -0.219806
    41  C   -0.219932
    42  C    0.231110
    43  C    0.346716
    44  N   -0.542036
    45  O   -0.527213
    46  C    0.552431
    47  C   -0.256823
    48  H    0.212350
    49  C   -0.125416
    50  H    0.203555
    51  C   -0.239192
    52  C    0.122650
    53  S    0.320604
    54  C    0.141746
    55  C   -0.605370
    56  C   -0.218407
    57  C   -0.613695
    58  H    0.199952
    59  H    0.195912
    60  H    0.200019
    61  C   -0.169427
    62  H    0.204377
    63  H    0.204411
    64  H    0.191008
    65  C   -0.221930
    66  H    0.206128
    67  H    0.199391
    68  C    0.549720
    69  O   -0.524228
    70  N   -0.543319
    71  C    0.345731
    72  C    0.230357
    73  C   -0.220094
    74  C   -0.220186
    75  C    0.230946
    76  C    0.346845
    77  N   -0.542607
    78  O   -0.527334
    79  C    0.552559
    80  C   -0.256829
    81  H    0.211871
    82  C   -0.126407
    83  H    0.203392
    84  C   -0.238508
    85  C    0.122221
    86  S    0.319380
    87  C    0.141799
    88  C   -0.604610
    89  C   -0.219818
    90  C   -0.612805
    91  H    0.199185
    92  H    0.195703
    93  H    0.199976
    94  C   -0.170310
    95  H    0.204292
    96  H    0.202917
    97  H    0.190271
    98  C   -0.221188
    99  H    0.206133
   100  H    0.200414
   101  C    0.548190
   102  O   -0.524183
   103  N   -0.543009
   104  C    0.345093
   105  C    0.229206
   106  C   -0.221086
   107  C   -0.220410
   108  C    0.231621
   109  C    0.346506
   110  N   -0.545483
   111  O   -0.527758
   112  C    0.552578
   113  C   -0.261209
   114  H    0.208613
   115  C   -0.122422
   116  H    0.200831
   117  C   -0.244288
   118  C    0.124395
   119  S    0.303286
   120  C    0.136293
   121  C   -0.600202
   122  C   -0.223961
   123  C   -0.602764
   124  H    0.197358
   125  H    0.193462
   126  H    0.195276
   127  C   -0.125868
   128  H    0.191941
   129  H    0.197042
   130  H    0.184554
   131  C   -0.384271
   132  H    0.178037
   133  H    0.178032
   134  H    0.179528
   135  Cl   0.092068
   136  Cl   0.084711
   137  Cl   0.080959
   138  Cl   0.087649
   139  Cl   0.080271
   140  Cl   0.087036
   141  Cl   0.078540
   142  Cl   0.083898
 Sum of Mulliken atomic charges =   0.00000

 Dipole moment (field-independent basis, Debye):
    X=              4.1971    Y=             -5.3380    Z=              0.0968  Tot=              6.7911
 Quadrupole moment (field-independent basis, Debye-Ang):
   XX=           -368.9024   YY=           -566.3687   ZZ=           -654.0189
   XY=             89.4908   XZ=              9.3645   YZ=              1.8740

 Normal termination of Gaussian 09 at Tue Nov  8 18:07:21 2011.
