 Gaussian 09, Revision B.01,
 Gaussian 09:  EM64L-G09RevB.01 12-Aug-2010

 ----------------------
 # td mpw1pw91/6-31g(d)
 ----------------------

 --------------------------------
 TON_B25i_mPW1PW91_6_31d_n2_TDDFT
 --------------------------------
 Symbolic Z-matrix:
 Charge =  0 Multiplicity = 1

                         Standard orientation:
 ---------------------------------------------------------------------
 Center     Atomic      Atomic             Coordinates (Angstroms)
 Number     Number       Type             X           Y           Z
 ---------------------------------------------------------------------
      1          6           0       20.286562    5.454066   -0.298795
      2          8           0       19.075305    6.051406   -0.443814
      3          7           0       20.281799    4.182464   -0.108466
      4          6           0       18.188553    5.025361   -0.330780
      5          6           0       18.937301    3.851056   -0.120489
      6          6           0       16.806974    5.087185   -0.404100
      7          6           0       18.305362    2.614023    0.035096
      8          6           0       16.174286    3.851498   -0.248814
      9          6           0       16.926696    2.673926   -0.038022
     10          7           0       14.839205    3.525201   -0.261955
     11          8           0       16.044391    1.649261    0.074046
     12          6           0       14.812126    2.238287   -0.071270
     13          6           0       13.646401    1.409854   -0.003179
     14          1           0       12.713017    1.948547   -0.126360
     15          6           0       13.690611    0.072659    0.195805
     16          1           0       14.666839   -0.387836    0.309948
     17          6           0       12.563746   -0.811491    0.273401
     18          6           0       12.582140   -2.187887    0.480099
     19         16           0       10.941160   -0.231463    0.107993
     20          6           0       11.283002   -2.764307    0.502703
     21          6           0       10.277558   -1.824172    0.304551
     22          1           0       21.142923    6.108733   -0.357550
     23          6           0        8.846599   -1.944509    0.250404
     24          6           0        8.108345   -3.078559    0.189522
     25          1           0        8.299434   -1.004610    0.245827
     26          1           0        8.541900   -4.067588    0.149977
     27          6           0       13.827393   -3.000503    0.670376
     28          1           0       14.734143   -2.404633    0.565813
     29          1           0       13.852168   -3.458042    1.665407
     30          1           0       13.884212   -3.811510   -0.062754
     31          6           0       11.038296   -4.222615    0.741965
     32          1           0       10.259175   -4.375625    1.495089
     33          1           0       10.717844   -4.735977   -0.172180
     34          1           0       11.940924   -4.723503    1.095642
     35          6           0        6.675914   -3.073651    0.145205
     36          8           0        6.018883   -1.870462    0.192221
     37          7           0        5.901633   -4.117454    0.062370
     38          6           0        4.703455   -2.197446    0.131884
     39          6           0        4.627293   -3.605452    0.050046
     40          6           0        3.618167   -1.341349    0.147624
     41          6           0        3.388081   -4.250741   -0.025601
     42          6           0        2.379561   -1.986985    0.073170
     43          6           0        2.302830   -3.395456   -0.010475
     44          7           0        1.106007   -1.474287    0.065145
     45          8           0        0.987376   -3.722033   -0.068920
     46          6           0        0.330189   -2.516751   -0.018293
     47          6           0       -1.100117   -2.516027   -0.059005
     48          1           0       -1.544149   -1.527700   -0.007089
     49          6           0       -1.845339   -3.641411   -0.154444
     50          1           0       -1.319808   -4.589690   -0.205771
     51          6           0       -3.277022   -3.710924   -0.194628
     52          6           0       -4.065144   -4.852622   -0.313112
     53         16           0       -4.259139   -2.289491   -0.091515
     54          6           0       -5.457714   -4.569374   -0.321305
     55          6           0       -3.524817   -6.246739   -0.424262
     56          6           0       -5.727741   -3.209138   -0.209831
     57          6           0       -6.509131   -5.630805   -0.431325
     58          1           0       -3.848729   -6.721137   -1.356499
     59          1           0       -2.435282   -6.274037   -0.408646
     60          1           0       -3.877619   -6.874269    0.401029
     61          6           0       -6.959758   -2.471239   -0.171225
     62          1           0       -7.209295   -5.589104    0.409759
     63          1           0       -7.094107   -5.524061   -1.351685
     64          1           0       -6.067146   -6.628077   -0.440118
     65          6           0       -8.222972   -2.943875   -0.299169
     66          1           0       -6.854381   -1.398954   -0.023078
     67          1           0       -8.453954   -3.986491   -0.461901
     68          6           0       -9.380408   -2.101414   -0.236852
     69          8           0       -9.208310   -0.755605   -0.035048
     70          7           0      -10.620035   -2.483442   -0.352741
     71          6           0      -10.467010   -0.248519   -0.024065
     72          6           0      -11.353482   -1.329501   -0.222828
     73          6           0      -10.845743    1.070224    0.147544
     74          6           0      -12.736691   -1.120461   -0.259747
     75          6           0      -12.228157    1.278676    0.110856
     76          6           0      -13.115435    0.196976   -0.088021
     77          7           0      -12.960917    2.432420    0.242757
     78          8           0      -14.373576    0.703675   -0.075088
     79          6           0      -14.201461    2.052042    0.128464
     80          6           0      -15.362919    2.884637    0.194456
     81          1           0      -15.148739    3.935371    0.357019
     82          6           0      -16.625319    2.413960    0.067093
     83          1           0      -16.749622    1.347244   -0.092702
     84          6           0      -17.833398    3.183098    0.122843
     85          6           0      -19.136173    2.718123    0.004934
     86         16           0      -17.812836    4.903352    0.358138
     87          6           0      -20.110445    3.754315    0.106416
     88          6           0      -19.517959    1.282951   -0.192984
     89          6           0      -19.542645    5.003261    0.286521
     90          6           0      -21.584765    3.489821    0.064582
     91          1           0      -20.177992    1.169374   -1.059027
     92          1           0      -18.653996    0.637364   -0.352984
     93          1           0      -20.058559    0.894806    0.677859
     94          6           0      -20.152659    6.314182    0.437716
     95          1           0      -22.131768    4.221929    0.663847
     96          1           0      -21.981345    3.538115   -0.956864
     97          1           0      -21.816862    2.494908    0.453190
     98          6           0      -21.339584    6.707160   -0.042908
     99          1           0      -19.557694    7.042711    0.985534
    100          1           0      -21.970991    6.066654   -0.646845
    101         17           0       15.948664    6.549742   -0.662693
    102         17           0       19.166345    1.151038    0.293569
    103         17           0        3.232166   -5.958294   -0.127470
    104         17           0        3.774854    0.364965    0.250082
    105         17           0      -13.864543   -2.394547   -0.497503
    106         17           0       -9.717210    2.342414    0.385674
    107          1           0      -21.699147    7.713598    0.140627
 ---------------------------------------------------------------------

 SCF Done:  E(RmPW1PW91) =  -6812.00449828     A.U. after   15 cycles

 Excitation energies and oscillator strengths:

 Excited State   1:      Singlet-A      2.2539 eV  550.09 nm  f=4.1047  <S**2>=0.000
     297 -> 299        0.18840
     297 -> 300        0.11674
     298 -> 299        0.64444
     298 -> 300       -0.15014
 This state for optimization and/or second-order correction.
 Total Energy, E(TD-HF/TD-KS) =  -6811.92167000
 Copying the excited state density for this state as the 1-particle RhoCI density.

 Excited State   2:      Singlet-A      2.6299 eV  471.44 nm  f=0.5346  <S**2>=0.000
     296 -> 300        0.11361
     297 -> 299        0.66240
     298 -> 299       -0.19972

 Excited State   3:      Singlet-A      2.6730 eV  463.85 nm  f=0.4891  <S**2>=0.000
     298 -> 299        0.13785
     298 -> 300        0.67705

 The electronic state is 1-A.
 Alpha  occ. eigenvalues -- -101.77869-101.77676-101.77658-101.77472-101.77351
 Alpha  occ. eigenvalues -- -101.77158 -89.12031 -89.11835 -89.10952 -19.34182
 Alpha  occ. eigenvalues --  -19.33614 -19.33499 -19.33389 -19.33183 -19.32915
 Alpha  occ. eigenvalues --  -14.43534 -14.42802 -14.42771 -14.42571 -14.42499
 Alpha  occ. eigenvalues --  -14.42036 -10.36556 -10.36414 -10.36298 -10.36240
 Alpha  occ. eigenvalues --  -10.36080 -10.35837 -10.33998 -10.33933 -10.33818
 Alpha  occ. eigenvalues --  -10.33770 -10.33754 -10.33729 -10.33479 -10.33424
 Alpha  occ. eigenvalues --  -10.33408 -10.33342 -10.33129 -10.33036 -10.31272
 Alpha  occ. eigenvalues --  -10.31230 -10.31040 -10.30987 -10.30913 -10.30743
 Alpha  occ. eigenvalues --  -10.30716 -10.30670 -10.30600 -10.30546 -10.29761
 Alpha  occ. eigenvalues --  -10.29521 -10.29432 -10.29380 -10.29166 -10.29154
 Alpha  occ. eigenvalues --  -10.28928 -10.28745 -10.28671 -10.28577 -10.28478
 Alpha  occ. eigenvalues --  -10.28346 -10.28197 -10.28077 -10.27993 -10.27916
 Alpha  occ. eigenvalues --  -10.27503 -10.27325 -10.27231 -10.26692 -10.26559
 Alpha  occ. eigenvalues --  -10.26538 -10.26416 -10.25990 -10.25983 -10.25601
 Alpha  occ. eigenvalues --   -9.55719  -9.55524  -9.55504  -9.55317  -9.55197
 Alpha  occ. eigenvalues --   -9.55003  -8.05494  -8.05298  -8.04417  -7.29740
 Alpha  occ. eigenvalues --   -7.29547  -7.29524  -7.29339  -7.29215  -7.29024
 Alpha  occ. eigenvalues --   -7.28733  -7.28682  -7.28540  -7.28520  -7.28484
 Alpha  occ. eigenvalues --   -7.28470  -7.28333  -7.28281  -7.28214  -7.28163
 Alpha  occ. eigenvalues --   -7.28019  -7.27967  -5.99552  -5.99356  -5.99191
 Alpha  occ. eigenvalues --   -5.98996  -5.98829  -5.98635  -5.98477  -5.98116
 Alpha  occ. eigenvalues --   -5.97751  -1.19118  -1.18605  -1.18541  -1.18359
 Alpha  occ. eigenvalues --   -1.18204  -1.17894  -0.98505  -0.98155  -0.98083
 Alpha  occ. eigenvalues --   -0.97929  -0.97749  -0.97452  -0.94274  -0.94067
 Alpha  occ. eigenvalues --   -0.93983  -0.93779  -0.93483  -0.93024  -0.91355
 Alpha  occ. eigenvalues --   -0.91086  -0.90742  -0.87486  -0.87241  -0.86681
 Alpha  occ. eigenvalues --   -0.86441  -0.86065  -0.85431  -0.84714  -0.84101
 Alpha  occ. eigenvalues --   -0.82855  -0.82395  -0.82079  -0.81687  -0.80955
 Alpha  occ. eigenvalues --   -0.80205  -0.78797  -0.78349  -0.77635  -0.77042
 Alpha  occ. eigenvalues --   -0.76705  -0.76483  -0.76114  -0.74779  -0.73985
 Alpha  occ. eigenvalues --   -0.72973  -0.71699  -0.71050  -0.70816  -0.70297
 Alpha  occ. eigenvalues --   -0.69891  -0.68977  -0.68473  -0.68158  -0.67752
 Alpha  occ. eigenvalues --   -0.67029  -0.65532  -0.64186  -0.63167  -0.62984
 Alpha  occ. eigenvalues --   -0.62708  -0.62562  -0.62491  -0.62254  -0.62159
 Alpha  occ. eigenvalues --   -0.61489  -0.60344  -0.59636  -0.59392  -0.59009
 Alpha  occ. eigenvalues --   -0.58574  -0.57917  -0.57425  -0.56463  -0.56129
 Alpha  occ. eigenvalues --   -0.55601  -0.55119  -0.54230  -0.53674  -0.52679
 Alpha  occ. eigenvalues --   -0.52494  -0.52280  -0.52116  -0.51967  -0.51649
 Alpha  occ. eigenvalues --   -0.51353  -0.51285  -0.51066  -0.50930  -0.50629
 Alpha  occ. eigenvalues --   -0.50530  -0.50086  -0.49699  -0.49359  -0.48970
 Alpha  occ. eigenvalues --   -0.48734  -0.48587  -0.48424  -0.48171  -0.48044
 Alpha  occ. eigenvalues --   -0.47728  -0.47636  -0.47382  -0.47312  -0.47145
 Alpha  occ. eigenvalues --   -0.46981  -0.46431  -0.45972  -0.45900  -0.45326
 Alpha  occ. eigenvalues --   -0.45240  -0.44877  -0.44246  -0.44149  -0.44117
 Alpha  occ. eigenvalues --   -0.44044  -0.43726  -0.43667  -0.43358  -0.43208
 Alpha  occ. eigenvalues --   -0.43131  -0.42749  -0.42598  -0.42422  -0.41763
 Alpha  occ. eigenvalues --   -0.41647  -0.41513  -0.41297  -0.41238  -0.41074
 Alpha  occ. eigenvalues --   -0.41031  -0.40948  -0.40765  -0.40720  -0.40508
 Alpha  occ. eigenvalues --   -0.40446  -0.40385  -0.40150  -0.39794  -0.39518
 Alpha  occ. eigenvalues --   -0.39342  -0.39273  -0.38523  -0.38027  -0.37775
 Alpha  occ. eigenvalues --   -0.37008  -0.36817  -0.36743  -0.36696  -0.36520
 Alpha  occ. eigenvalues --   -0.36139  -0.35798  -0.35695  -0.35453  -0.35217
 Alpha  occ. eigenvalues --   -0.34925  -0.34682  -0.34473  -0.34245  -0.34090
 Alpha  occ. eigenvalues --   -0.34015  -0.33924  -0.33839  -0.33786  -0.33474
 Alpha  occ. eigenvalues --   -0.33280  -0.32512  -0.32403  -0.32117  -0.31911
 Alpha  occ. eigenvalues --   -0.31768  -0.31637  -0.31560  -0.31223  -0.30434
 Alpha  occ. eigenvalues --   -0.29187  -0.27638  -0.27176  -0.27001  -0.26371
 Alpha  occ. eigenvalues --   -0.26136  -0.25521  -0.24915  -0.24549  -0.24089
 Alpha  occ. eigenvalues --   -0.22619  -0.21471  -0.20545
 Alpha virt. eigenvalues --   -0.10737  -0.09711  -0.07981  -0.06420  -0.04947
 Alpha virt. eigenvalues --   -0.03074  -0.02247  -0.01112  -0.00347  -0.00046
 Alpha virt. eigenvalues --    0.00674   0.01324   0.01470   0.01513   0.02266

 Mulliken atomic charges:
              1
     1  C    0.258071
     2  O   -0.466246
     3  N   -0.472533
     4  C    0.343779
     5  C    0.212961
     6  C   -0.219482
     7  C   -0.215390
     8  C    0.231597
     9  C    0.351515
    10  N   -0.548275
    11  O   -0.538157
    12  C    0.563942
    13  C   -0.265408
    14  H    0.219803
    15  C   -0.124804
    16  H    0.211343
    17  C   -0.249117
    18  C    0.117073
    19  S    0.330580
    20  C    0.136778
    21  C   -0.229909
    22  H    0.223684
    23  C   -0.170750
    24  C   -0.229019
    25  H    0.213984
    26  H    0.209117
    27  C   -0.608329
    28  H    0.198851
    29  H    0.203624
    30  H    0.202833
    31  C   -0.617314
    32  H    0.207465
    33  H    0.206012
    34  H    0.194878
    35  C    0.559852
    36  O   -0.535216
    37  N   -0.549340
    38  C    0.352332
    39  C    0.228774
    40  C   -0.224230
    41  C   -0.224259
    42  C    0.230010
    43  C    0.353377
    44  N   -0.548620
    45  O   -0.538638
    46  C    0.562770
    47  C   -0.265420
    48  H    0.219343
    49  C   -0.126202
    50  H    0.210838
    51  C   -0.249147
    52  C    0.117062
    53  S    0.329759
    54  C    0.136260
    55  C   -0.609057
    56  C   -0.228279
    57  C   -0.618187
    58  H    0.202975
    59  H    0.198761
    60  H    0.202714
    61  C   -0.170764
    62  H    0.207413
    63  H    0.207011
    64  H    0.194624
    65  C   -0.229236
    66  H    0.212914
    67  H    0.206901
    68  C    0.559296
    69  O   -0.535840
    70  N   -0.549781
    71  C    0.351872
    72  C    0.228198
    73  C   -0.225576
    74  C   -0.224923
    75  C    0.230669
    76  C    0.353188
    77  N   -0.552175
    78  O   -0.539129
    79  C    0.563395
    80  C   -0.269384
    81  H    0.215733
    82  C   -0.123964
    83  H    0.208400
    84  C   -0.253373
    85  C    0.119048
    86  S    0.312548
    87  C    0.129981
    88  C   -0.603651
    89  C   -0.233404
    90  C   -0.606253
    91  H    0.198513
    92  H    0.196504
    93  H    0.200209
    94  C   -0.130813
    95  H    0.200221
    96  H    0.194630
    97  H    0.187896
    98  C   -0.391072
    99  H    0.184420
   100  H    0.184602
   101  Cl   0.096871
   102  Cl   0.089841
   103  Cl   0.085799
   104  Cl   0.092189
   105  Cl   0.083556
   106  Cl   0.088853
   107  H    0.182655
 Sum of Mulliken atomic charges =   0.00000

 Dipole moment (field-independent basis, Debye):
    X=             -4.6256    Y=             -4.6349    Z=              0.1522  Tot=              6.5500
 Quadrupole moment (field-independent basis, Debye-Ang):
   XX=           -305.1939   YY=           -450.9734   ZZ=           -490.2088
   XY=            -38.9418   XZ=              8.8777   YZ=             -0.0616

 Normal termination of Gaussian 09 at Tue Nov  8 23:24:25 2011.
